RBC500
  
500 atoms 
1494 bonds 
996 angles 
1494 dihedrals 
0 impropers 
  
1 atom types 
1 bond types 
1 angle types 
1 dihedral types 
0 improper types 
  
-10.000000 10.000000 xlo xhi 
-10.000000 10.000000 ylo yhi 
-10.000000 10.000000 zlo zhi 
  
Masses  
  
1 1.000000 
  
Atoms  

1 1001 1 1.134293 1.780749 1.107363 1.0
2 1001 1 0.408014 -3.281491 2.007693 1.0
3 1001 1 0.207285 -0.445140 -3.870457 1.0
4 1001 1 -1.277647 -1.129021 -2.301577 1.0
5 1001 1 -0.031075 0.910916 3.807953 1.0
6 1001 1 0.076596 3.310779 -2.062647 1.0
7 1001 1 0.568460 -3.727161 -0.642204 1.0
8 1001 1 -0.174578 -2.839611 2.695273 1.0
9 1001 1 1.227263 1.295289 2.766873 1.0
10 1001 1 -0.837436 1.439959 -0.124557 1.0
11 1001 1 0.044498 1.398169 3.644973 1.0
12 1001 1 -0.628253 0.777165 0.622277 1.0
13 1001 1 -0.380005 3.630899 1.228483 1.0
14 1001 1 0.988328 3.115469 1.479933 1.0
15 1001 1 0.140637 -3.773271 -1.007917 1.0
16 1001 1 -0.983573 -2.795071 2.066513 1.0
17 1001 1 1.288593 2.785989 -0.027292 1.0
18 1001 1 -0.862584 3.066169 1.825313 1.0
19 1001 1 -1.283927 0.498145 2.672383 1.0
20 1001 1 1.261353 2.370729 -0.706523 1.0
21 1001 1 -1.281817 -1.351691 2.360323 1.0
22 1001 1 -1.166557 -2.092991 0.540327 1.0
23 1001 1 1.280263 1.995929 -1.626417 1.0
24 1001 1 0.858053 2.182389 2.821503 1.0
25 1001 1 -1.275547 -2.745831 -0.746916 1.0
26 1001 1 1.263153 -2.063571 -1.475877 1.0
27 1001 1 0.621371 -2.622511 -2.665677 1.0
28 1001 1 -1.255747 1.124449 -2.788247 1.0
29 1001 1 -1.157357 -1.571181 2.843133 1.0
30 1001 1 -1.009137 -1.853151 -2.891747 1.0
31 1001 1 0.640184 -3.562691 -1.185247 1.0
32 1001 1 0.985232 1.502789 -0.915828 1.0
33 1001 1 0.761769 -0.828871 3.560933 1.0
34 1001 1 0.430784 0.629349 3.775413 1.0
35 1001 1 1.290853 1.574429 2.190183 1.0
36 1001 1 1.287503 -2.744241 0.367207 1.0
37 1001 1 0.649349 3.624149 -0.836988 1.0
38 1001 1 -1.266857 0.647151 -2.861957 1.0
39 1001 1 -1.070987 -2.395051 2.383013 1.0
40 1001 1 0.808763 3.059589 1.900313 1.0
41 1001 1 0.979821 -0.304227 3.459653 1.0
42 1001 1 1.148843 -1.883841 1.028563 1.0
43 1001 1 0.031304 2.559539 2.959373 1.0
44 1001 1 0.623168 -3.035071 -2.192207 1.0
45 1001 1 0.165887 2.162699 -3.221447 1.0
46 1001 1 0.838509 1.444689 0.209984 1.0
47 1001 1 1.147573 -0.234970 -3.229367 1.0
48 1001 1 -1.228887 1.827389 -1.464877 1.0
49 1001 1 -0.483364 -1.464131 3.536223 1.0
50 1001 1 -1.277137 -2.700801 0.520506 1.0
51 1001 1 -0.799309 -2.353221 -2.768187 1.0
52 1001 1 -0.409574 -2.468241 -2.958967 1.0
53 1001 1 1.204943 -2.254001 0.566280 1.0
54 1001 1 0.850253 -2.125031 -2.897697 1.0
55 1001 1 -1.246457 -1.932821 -1.458507 1.0
56 1001 1 1.231863 1.700229 1.641433 1.0
57 1001 1 0.511194 1.106319 3.628393 1.0
58 1001 1 -1.278307 2.053039 1.689673 1.0
59 1001 1 -1.286257 2.584009 0.900400 1.0
60 1001 1 1.017123 -1.827211 0.082951 1.0
61 1001 1 -1.263577 -1.646561 -2.430157 1.0
62 1001 1 -1.290147 1.864269 -2.087107 1.0
63 1001 1 0.249588 3.511019 -1.619527 1.0
64 1001 1 -0.817052 2.738609 -2.333387 1.0
65 1001 1 0.726335 3.424999 -1.298177 1.0
66 1001 1 1.283063 0.714504 2.550403 1.0
67 1001 1 0.573158 -0.052706 0.865804 1.0
68 1001 1 0.206517 -2.139811 3.269913 1.0
69 1001 1 -0.749250 0.858011 -0.894426 1.0
70 1001 1 0.717681 -0.285954 -3.682367 1.0
71 1001 1 -0.397697 3.783059 -0.616219 1.0
72 1001 1 -1.201207 1.453419 -1.738607 1.0
73 1001 1 0.923765 2.538809 -2.441127 1.0
74 1001 1 0.485210 -0.866538 -3.713827 1.0
75 1001 1 -1.058877 -0.714498 3.293893 1.0
76 1001 1 -0.514885 3.106829 -2.166227 1.0
77 1001 1 -0.077067 1.328729 -3.673047 1.0
78 1001 1 -1.247727 0.277774 -2.435527 1.0
79 1001 1 -1.239237 1.760809 2.462533 1.0
80 1001 1 -1.246307 2.392789 0.024145 1.0
81 1001 1 0.542711 0.129785 -0.720175 1.0
82 1001 1 0.529771 2.581439 2.749503 1.0
83 1001 1 1.287693 2.215809 1.488453 1.0
84 1001 1 1.272763 1.649889 -1.982507 1.0
85 1001 1 -0.316366 -3.638761 -1.320917 1.0
86 1001 1 -0.347779 2.308999 -3.073347 1.0
87 1001 1 -1.251457 -1.887141 2.372143 1.0
88 1001 1 1.247533 -1.716671 2.449143 1.0
89 1001 1 -0.764267 1.702279 3.238583 1.0
90 1001 1 -0.680121 0.311107 -1.057507 1.0
91 1001 1 0.734205 -2.605751 2.603923 1.0
92 1001 1 0.008330 -3.921081 0.091813 1.0
93 1001 1 0.719475 2.829539 2.341873 1.0
94 1001 1 1.022373 -2.929731 -1.772897 1.0
95 1001 1 0.709436 -0.960519 0.703064 1.0
96 1001 1 -1.270127 2.859069 -0.220303 1.0
97 1001 1 0.939549 -1.399911 0.894879 1.0
98 1001 1 -1.067297 -0.946449 -3.248517 1.0
99 1001 1 0.619310 -0.880659 -0.412905 1.0
100 1001 1 -0.191041 3.747599 -0.977500 1.0
101 1001 1 -1.070797 1.936899 0.010494 1.0
102 1001 1 -1.015557 -0.003793 -3.436487 1.0
103 1001 1 0.694542 0.524291 -0.984556 1.0
104 1001 1 1.259483 -0.900407 -2.355147 1.0
105 1001 1 1.026753 1.289889 1.276173 1.0
106 1001 1 0.991741 -1.632121 -3.060327 1.0
107 1001 1 0.253314 -0.754388 3.824123 1.0
108 1001 1 -1.123927 3.200179 -0.709469 1.0
109 1001 1 -0.636964 -0.617277 -0.792919 1.0
110 1001 1 1.238503 1.732009 -2.493307 1.0
111 1001 1 1.052043 -3.151021 -1.276157 1.0
112 1001 1 0.745877 -3.569161 0.917796 1.0
113 1001 1 -1.019847 2.855439 -1.847807 1.0
114 1001 1 -0.272776 3.605039 -1.408277 1.0
115 1001 1 1.280403 -0.741471 2.649503 1.0
116 1001 1 -1.245047 0.792558 -2.321447 1.0
117 1001 1 -0.508333 1.206469 3.592993 1.0
118 1001 1 -0.526991 -3.498511 1.521443 1.0
119 1001 1 -0.516351 0.309234 0.637234 1.0
120 1001 1 0.182820 -2.989601 -2.503877 1.0
121 1001 1 0.958046 -0.604077 1.581263 1.0
122 1001 1 1.025743 -1.781061 0.564183 1.0
123 1001 1 1.266223 2.107039 2.037223 1.0
124 1001 1 1.275293 -2.825651 -0.822170 1.0
125 1001 1 1.224433 2.215739 -2.119247 1.0
126 1001 1 -0.715557 3.513669 -1.075337 1.0
127 1001 1 0.408779 3.175829 2.151073 1.0
128 1001 1 0.045476 0.344696 3.897003 1.0
129 1001 1 -0.928375 -2.667271 -2.296287 1.0
130 1001 1 0.311254 1.667329 -3.476767 1.0
131 1001 1 1.134143 -1.020701 -1.793567 1.0
132 1001 1 0.139615 -0.180106 3.898373 1.0
133 1001 1 1.265613 -1.186661 2.290083 1.0
134 1001 1 -1.277067 -0.258880 -2.566807 1.0
135 1001 1 0.716949 3.674899 0.176580 1.0
136 1001 1 1.048043 -1.845321 -0.491986 1.0
137 1001 1 -0.513871 -0.220610 0.677659 1.0
138 1001 1 0.555287 0.462678 0.654750 1.0
139 1001 1 1.277203 0.811970 -2.787467 1.0
140 1001 1 -1.141757 1.529759 1.395193 1.0
141 1001 1 -0.823282 3.553729 -0.580314 1.0
142 1001 1 1.077213 -1.143981 -3.160727 1.0
143 1001 1 -1.173627 2.607459 1.860173 1.0
144 1001 1 -0.049288 2.989199 -2.482647 1.0
145 1001 1 -1.279767 -1.933121 -1.990027 1.0
146 1001 1 0.591957 -1.749561 3.348103 1.0
147 1001 1 -1.231647 2.264969 -0.512839 1.0
148 1001 1 -0.057056 2.172379 3.233243 1.0
149 1001 1 -1.256887 -1.688521 1.889793 1.0
150 1001 1 -1.285927 -0.511154 2.820763 1.0
151 1001 1 0.075194 -2.660221 -2.862457 1.0
152 1001 1 -0.478815 -3.813781 0.239669 1.0
153 1001 1 0.896488 -3.090671 1.759673 1.0
154 1001 1 1.274083 -2.760531 -0.194976 1.0
155 1001 1 -1.285927 -2.538251 -1.339047 1.0
156 1001 1 -0.747178 0.594190 1.128153 1.0
157 1001 1 0.667571 0.964382 0.428743 1.0
158 1001 1 -0.711844 -3.657061 0.639450 1.0
159 1001 1 -0.909955 -3.556181 0.081268 1.0
160 1001 1 1.173253 1.179479 -1.798697 1.0
161 1001 1 0.424994 0.073826 -0.218496 1.0
162 1001 1 0.492704 -3.809881 -0.070769 1.0
163 1001 1 -0.616401 -2.213891 3.027713 1.0
164 1001 1 -0.100346 -3.204661 2.270423 1.0
165 1001 1 1.177863 -0.673055 2.104403 1.0
166 1001 1 -0.437818 -2.836761 -2.588487 1.0
167 1001 1 1.059283 -0.180938 1.909273 1.0
168 1001 1 -0.686573 -0.657627 0.943486 1.0
169 1001 1 -0.010477 3.325859 2.041763 1.0
170 1001 1 0.777232 0.884743 0.963084 1.0
171 1001 1 -1.288737 -2.745181 -0.129408 1.0
172 1001 1 0.697459 -0.135316 -1.150197 1.0
173 1001 1 -0.112945 -0.073415 -3.893807 1.0
174 1001 1 -0.211148 -2.445691 3.036773 1.0
175 1001 1 0.558537 -1.803101 -3.322417 1.0
176 1001 1 -0.425361 2.732289 -2.665387 1.0
177 1001 1 -1.233987 0.927682 2.909883 1.0
178 1001 1 -0.942978 1.219539 3.276573 1.0
179 1001 1 -1.269897 2.311509 -1.719817 1.0
180 1001 1 0.972932 0.296686 1.694093 1.0
181 1001 1 -0.986613 -2.079161 2.776643 1.0
182 1001 1 -1.193477 -0.418229 -3.112887 1.0
183 1001 1 1.134023 1.539719 -1.413657 1.0
184 1001 1 -1.189947 2.221419 2.258643 1.0
185 1001 1 0.693041 -2.202341 2.997153 1.0
186 1001 1 -0.207026 -3.172771 -2.259547 1.0
187 1001 1 1.222143 2.053369 -1.106667 1.0
188 1001 1 -0.744557 -3.317481 -1.574687 1.0
189 1001 1 1.267373 2.718139 -1.042097 1.0
190 1001 1 1.076083 3.039579 -1.405007 1.0
191 1001 1 -0.841268 -0.372572 1.418833 1.0
192 1001 1 0.226452 -3.325321 -2.019207 1.0
193 1001 1 -0.879477 -3.417291 1.109433 1.0
194 1001 1 0.393654 -2.270741 -3.096097 1.0
195 1001 1 1.243023 2.712779 1.289983 1.0
196 1001 1 -1.249777 1.582989 -2.571117 1.0
197 1001 1 1.072023 2.747509 -1.897527 1.0
198 1001 1 1.247263 -1.278631 -2.702877 1.0
199 1001 1 -1.216557 -2.331971 0.129097 1.0
200 1001 1 0.653651 1.944769 -3.158017 1.0
201 1001 1 0.991131 0.854262 -3.339377 1.0
202 1001 1 -1.270617 -2.374371 1.007843 1.0
203 1001 1 -0.920092 0.765341 3.455813 1.0
204 1001 1 -0.626170 3.727939 -0.139624 1.0
205 1001 1 -0.731987 -0.249486 -1.192387 1.0
206 1001 1 -1.072937 3.114829 -1.259077 1.0
207 1001 1 0.403808 -3.830411 0.496606 1.0
208 1001 1 -0.664745 -3.089231 -2.083147 1.0
209 1001 1 1.290593 0.231798 2.791233 1.0
210 1001 1 0.678306 3.222759 -1.804807 1.0
211 1001 1 -0.796667 3.599979 0.272491 1.0
212 1001 1 -1.225047 -1.474641 -1.869447 1.0
213 1001 1 1.269393 -2.772831 0.937780 1.0
214 1001 1 -1.139967 1.476539 2.886143 1.0
215 1001 1 0.989603 -3.384921 -0.800713 1.0
216 1001 1 -0.842482 0.193162 1.452273 1.0
217 1001 1 -1.054787 3.361189 -0.170279 1.0
218 1001 1 1.063373 -2.627241 2.119653 1.0
219 1001 1 0.772212 2.901299 -2.195687 1.0
220 1001 1 -1.063297 -1.341781 -1.384607 1.0
221 1001 1 -1.106307 -3.280911 0.622778 1.0
222 1001 1 -0.297266 3.845239 0.316942 1.0
223 1001 1 -0.951864 -0.911907 1.400843 1.0
224 1001 1 0.568830 2.385839 -2.892567 1.0
225 1001 1 1.103563 0.210620 3.324023 1.0
226 1001 1 0.908700 1.377639 0.751861 1.0
227 1001 1 0.712226 -0.743250 -0.961405 1.0
228 1001 1 1.183273 -1.542471 -1.617177 1.0
229 1001 1 -0.141032 -3.872021 0.624863 1.0
230 1001 1 1.123613 -3.224631 0.677146 1.0
231 1001 1 0.953058 -2.699671 -2.241787 1.0
232 1001 1 0.254935 3.694209 -1.149157 1.0
233 1001 1 1.151873 1.202409 1.785233 1.0
234 1001 1 -0.787697 2.365779 -2.737037 1.0
235 1001 1 1.181143 1.271459 -2.927687 1.0
236 1001 1 -1.097037 0.481566 -3.282627 1.0
237 1001 1 -1.257407 0.102161 -2.952747 1.0
238 1001 1 -0.886299 -1.245351 0.972437 1.0
239 1001 1 -1.276387 1.649929 1.973283 1.0
240 1001 1 1.197143 -2.272061 -0.001251 1.0
241 1001 1 -0.830012 -3.594511 -0.502009 1.0
242 1001 1 -0.370628 -3.709871 1.056893 1.0
243 1001 1 -1.016327 1.515549 -3.057997 1.0
244 1001 1 0.178198 1.827749 3.441003 1.0
245 1001 1 -0.833999 2.420499 2.651573 1.0
246 1001 1 1.199983 0.367648 -3.105997 1.0
247 1001 1 1.011043 -1.763961 2.953793 1.0
248 1001 1 0.073014 -3.890341 -0.457458 1.0
249 1001 1 -0.701022 1.097249 0.264376 1.0
250 1001 1 0.718279 3.462179 1.213213 1.0
251 1001 1 -0.891037 0.688374 -1.405787 1.0
252 1001 1 -0.275450 -3.435241 -1.814467 1.0
253 1001 1 -0.699199 -1.058221 0.522704 1.0
254 1001 1 -1.041947 1.776489 -0.458855 1.0
255 1001 1 -0.720990 1.934909 -3.127307 1.0
256 1001 1 1.268873 2.869949 -0.512185 1.0
257 1001 1 -0.958591 1.007239 1.385643 1.0
258 1001 1 -0.334076 -1.494191 -3.556007 1.0
259 1001 1 -1.233337 0.783719 2.265783 1.0
260 1001 1 0.586561 -0.369467 3.757713 1.0
261 1001 1 0.594205 -0.936011 0.140943 1.0
262 1001 1 1.247383 2.981219 0.377380 1.0
263 1001 1 -1.175687 -1.134511 1.867203 1.0
264 1001 1 -0.119223 -1.126061 3.751343 1.0
265 1001 1 0.312464 -2.970261 2.510473 1.0
266 1001 1 0.490471 1.144929 -3.628457 1.0
267 1001 1 -0.864978 1.186049 0.879286 1.0
268 1001 1 -1.075307 -0.596818 1.859073 1.0
269 1001 1 0.529358 0.587655 -0.443552 1.0
270 1001 1 -1.120557 -1.790581 0.982490 1.0
271 1001 1 1.235103 2.336039 -0.217088 1.0
272 1001 1 1.036303 0.741395 -1.686427 1.0
273 1001 1 0.351768 0.183111 -3.851457 1.0
274 1001 1 -0.207391 3.785459 0.803275 1.0
275 1001 1 1.055323 3.272809 -0.804552 1.0
276 1001 1 1.004563 2.142989 -2.697597 1.0
277 1001 1 1.178063 -0.073577 -2.224157 1.0
278 1001 1 -0.472643 0.599983 3.758113 1.0
279 1001 1 -0.616463 1.435039 -3.444997 1.0
280 1001 1 -1.288057 -0.789482 -2.725237 1.0
281 1001 1 0.054864 2.606599 -2.896827 1.0
282 1001 1 -1.252367 -2.036671 1.450593 1.0
283 1001 1 0.480105 2.140319 3.143193 1.0
284 1001 1 1.263903 -1.411591 -2.164207 1.0
285 1001 1 0.672395 -3.326931 -1.688197 1.0
286 1001 1 -1.209077 -3.121141 0.184840 1.0
287 1001 1 -1.144717 3.137069 0.846729 1.0
288 1001 1 -0.876152 1.326569 -0.689553 1.0
289 1001 1 -0.277528 -0.561587 3.848693 1.0
290 1001 1 -1.139027 -0.164720 3.260983 1.0
291 1001 1 -0.449250 -3.836251 -0.245577 1.0
292 1001 1 -1.029867 -0.040986 1.839163 1.0
293 1001 1 1.127923 -1.097921 1.758863 1.0
294 1001 1 -0.929347 -1.581921 0.507680 1.0
295 1001 1 -0.748890 0.492417 -3.623877 1.0
296 1001 1 0.647190 0.150802 3.734393 1.0
297 1001 1 -0.246504 0.413746 -3.853437 1.0
298 1001 1 -0.934354 1.581239 0.408607 1.0
299 1001 1 1.112623 3.304929 -0.151065 1.0
300 1001 1 -1.203597 -0.603890 -2.171767 1.0
301 1001 1 0.903889 -0.612738 -1.464417 1.0
302 1001 1 -0.418939 0.111578 -0.241461 1.0
303 1001 1 -0.575797 -0.887068 0.037409 1.0
304 1001 1 1.055083 1.897699 0.004941 1.0
305 1001 1 -0.373742 -3.781641 -0.786818 1.0
306 1001 1 0.449656 2.776639 -2.605447 1.0
307 1001 1 1.242363 -0.232882 2.447493 1.0
308 1001 1 -1.264747 2.249759 -1.108447 1.0
309 1001 1 -0.532743 -0.081810 -0.702171 1.0
310 1001 1 -0.833886 3.349259 1.294203 1.0
311 1001 1 -1.181927 0.256838 2.222343 1.0
312 1001 1 1.013133 1.710909 -2.948097 1.0
313 1001 1 -1.249277 -0.819360 2.340303 1.0
314 1001 1 -1.175567 -3.207651 -0.323728 1.0
315 1001 1 0.896554 0.234219 -3.534897 1.0
316 1001 1 1.287293 2.713169 0.773089 1.0
317 1001 1 0.922546 0.999989 -1.254517 1.0
318 1001 1 1.232473 -2.651371 1.566853 1.0
319 1001 1 0.389034 3.099399 -2.237597 1.0
320 1001 1 1.096203 0.326403 -1.946767 1.0
321 1001 1 -1.110137 0.972244 -1.783077 1.0
322 1001 1 -0.464243 -0.441852 -0.241847 1.0
323 1001 1 -0.472843 3.391469 1.740803 1.0
324 1001 1 1.221543 -2.430871 -1.880297 1.0
325 1001 1 0.437918 -1.259911 3.623883 1.0
326 1001 1 1.285563 -0.010679 -2.783167 1.0
327 1001 1 -1.183247 2.136789 0.537683 1.0
328 1001 1 -1.083827 -1.894431 -0.532403 1.0
329 1001 1 -1.177847 1.134899 1.847203 1.0
330 1001 1 1.280823 -0.430779 -2.588847 1.0
331 1001 1 1.031673 2.424299 2.408863 1.0
332 1001 1 1.264423 0.380581 -2.501447 1.0
333 1001 1 -1.008927 1.269349 -1.256427 1.0
334 1001 1 -0.475765 0.565146 0.089580 1.0
335 1001 1 -0.470483 0.939467 -3.691437 1.0
336 1001 1 1.237503 -2.362811 -0.504164 1.0
337 1001 1 -0.648285 -0.988372 -0.419965 1.0
338 1001 1 -1.227427 2.052949 1.119763 1.0
339 1001 1 1.102053 1.903799 -0.558762 1.0
340 1001 1 1.074743 1.860529 0.550164 1.0
341 1001 1 0.730938 0.380171 1.183623 1.0
342 1001 1 0.941202 -0.726537 -3.434887 1.0
343 1001 1 1.097613 -1.684241 -1.065917 1.0
344 1001 1 -0.004218 3.562949 1.568923 1.0
345 1001 1 -1.102237 -0.954360 -1.777417 1.0
346 1001 1 1.173693 -3.213771 0.121816 1.0
347 1001 1 0.854246 -1.297951 -0.736722 1.0
348 1001 1 -1.100177 -3.237861 -0.794919 1.0
349 1001 1 -0.500472 -0.560388 0.361129 1.0
350 1001 1 0.066789 -1.642301 3.552183 1.0
351 1001 1 0.964688 1.199069 3.284203 1.0
352 1001 1 -0.410364 2.723099 2.680473 1.0
353 1001 1 0.288302 -2.581011 2.914733 1.0
354 1001 1 -0.895561 0.126583 -1.548457 1.0
355 1001 1 -0.850024 0.207270 3.583703 1.0
356 1001 1 1.092023 -2.290281 -2.437797 1.0
357 1001 1 0.875006 1.467089 -0.351850 1.0
358 1001 1 -0.947218 -1.250471 3.276813 1.0
359 1001 1 0.608945 0.637908 -3.684217 1.0
360 1001 1 0.798447 -1.384141 -0.199125 1.0
361 1001 1 -1.149157 2.931199 1.364433 1.0
362 1001 1 1.144453 0.705563 1.988843 1.0
363 1001 1 0.427658 0.012649 0.324022 1.0
364 1001 1 -0.790775 -1.346711 0.038810 1.0
365 1001 1 -1.062947 -2.886191 -1.766877 1.0
366 1001 1 -1.070947 -1.660911 -0.980740 1.0
367 1001 1 -1.023987 -1.853691 -0.001368 1.0
368 1001 1 -1.280517 2.461029 1.393673 1.0
369 1001 1 -0.654245 -0.020134 1.064533 1.0
370 1001 1 0.803075 -0.120558 1.390453 1.0
371 1001 1 -0.152283 3.871309 -0.192197 1.0
372 1001 1 0.854434 -3.596131 0.336428 1.0
373 1001 1 -1.232897 2.679279 -1.375237 1.0
374 1001 1 -1.090667 1.988749 -2.670587 1.0
375 1001 1 1.246803 2.363119 0.344229 1.0
376 1001 1 0.487656 0.533051 0.108225 1.0
377 1001 1 0.256640 3.840439 0.534490 1.0
378 1001 1 -1.126557 2.371289 -2.242647 1.0
379 1001 1 -0.832118 -1.155991 -0.904241 1.0
380 1001 1 -0.763043 -0.361750 3.630733 1.0
381 1001 1 -0.965184 -0.423132 -1.676877 1.0
382 1001 1 -0.604333 -0.035230 -3.753487 1.0
383 1001 1 1.181903 1.873369 2.572423 1.0
384 1001 1 -0.089088 -2.263841 -3.197627 1.0
385 1001 1 -1.241177 -2.622641 1.536363 1.0
386 1001 1 0.916609 -1.304921 3.301423 1.0
387 1001 1 0.905528 -1.017811 1.246233 1.0
388 1001 1 0.958138 -1.156181 -1.271617 1.0
389 1001 1 0.714334 -2.949781 2.217053 1.0
390 1001 1 -0.233336 1.834369 -3.409347 1.0
391 1001 1 1.263933 -1.618671 1.918393 1.0
392 1001 1 -0.515531 2.237259 3.061983 1.0
393 1001 1 -1.241567 -1.042601 2.850983 1.0
394 1001 1 1.199153 0.251212 2.229873 1.0
395 1001 1 -1.092787 0.459711 -1.913717 1.0
396 1001 1 -1.273277 1.255109 2.406853 1.0
397 1001 1 1.254203 -2.168291 2.032363 1.0
398 1001 1 1.222883 0.785029 -2.196057 1.0
399 1001 1 0.807157 -1.371591 0.348165 1.0
400 1001 1 -1.170627 0.388378 3.164293 1.0
401 1001 1 -0.301590 -1.964491 3.348353 1.0
402 1001 1 -0.836904 -1.468701 -3.287557 1.0
403 1001 1 -1.124117 -0.070894 -2.044447 1.0
404 1001 1 1.144443 2.657639 1.879123 1.0
405 1001 1 0.196931 -3.596271 -1.536697 1.0
406 1001 1 1.264553 -2.043721 1.541223 1.0
407 1001 1 0.854475 0.366657 -1.422567 1.0
408 1001 1 1.258103 -0.274252 2.999613 1.0
409 1001 1 1.183943 -3.162691 -0.415712 1.0
410 1001 1 0.102973 0.782738 -3.811907 1.0
411 1001 1 1.256783 2.246749 0.922727 1.0
412 1001 1 0.903691 -3.546131 -0.238939 1.0
413 1001 1 -0.368651 -0.545879 -3.810867 1.0
414 1001 1 -0.645998 -0.924194 3.626493 1.0
415 1001 1 1.288173 1.236389 -2.375817 1.0
416 1001 1 0.473363 3.422579 1.657723 1.0
417 1001 1 0.949671 0.792254 1.478313 1.0
418 1001 1 1.096643 3.188749 0.924782 1.0
419 1001 1 -1.283427 0.010848 2.750213 1.0
420 1001 1 -1.100627 1.779759 -0.942384 1.0
421 1001 1 1.028283 3.387639 0.410955 1.0
422 1001 1 -1.273267 1.285639 -2.211237 1.0
423 1001 1 -0.856602 -0.515974 -3.551587 1.0
424 1001 1 -0.071647 -0.992121 -3.787557 1.0
425 1001 1 0.111955 2.963669 2.535123 1.0
426 1001 1 0.207153 3.837599 -0.589454 1.0
427 1001 1 1.116653 -1.510801 1.406933 1.0
428 1001 1 -0.436608 3.095679 2.253983 1.0
429 1001 1 -0.578397 -3.238021 1.955343 1.0
430 1001 1 -0.788666 -1.752631 3.190013 1.0
431 1001 1 -1.190217 -1.319861 -2.856137 1.0
432 1001 1 -0.393696 0.013154 3.840373 1.0
433 1001 1 -0.337910 1.761129 3.442573 1.0
434 1001 1 -1.290887 2.735399 0.396862 1.0
435 1001 1 0.576652 1.587579 3.404693 1.0
436 1001 1 -0.648594 0.962262 -0.307839 1.0
437 1001 1 -1.141347 -2.178951 -2.419087 1.0
438 1001 1 0.865351 0.671069 3.502303 1.0
439 1001 1 1.264463 2.478429 -1.528177 1.0
440 1001 1 0.273809 3.856679 -0.010279 1.0
441 1001 1 1.261183 1.110169 2.284723 1.0
442 1001 1 -1.064437 1.675919 0.872553 1.0
443 1001 1 0.952277 -0.116116 -1.677297 1.0
444 1001 1 0.743624 1.032499 -0.705297 1.0
445 1001 1 -1.119487 -1.463901 1.419943 1.0
446 1001 1 0.028649 -1.878141 -3.425527 1.0
447 1001 1 1.203223 -1.797271 -2.574797 1.0
448 1001 1 -1.128877 -3.059481 -1.252297 1.0
449 1001 1 -0.749354 3.582189 0.755709 1.0
450 1001 1 0.713987 -0.544566 1.056533 1.0
451 1001 1 -0.695118 -2.590341 2.661933 1.0
452 1001 1 -1.030427 0.574604 1.740113 1.0
453 1001 1 -0.973824 0.990259 -3.318707 1.0
454 1001 1 0.716561 -1.283311 -3.448097 1.0
455 1001 1 0.242855 -3.766071 1.014803 1.0
456 1001 1 -0.859343 -0.797567 -1.294397 1.0
457 1001 1 -0.569071 -2.962201 2.363863 1.0
458 1001 1 -1.134157 3.228029 0.322037 1.0
459 1001 1 -0.412598 -0.030085 0.205800 1.0
460 1001 1 -1.283217 2.729829 -0.820159 1.0
461 1001 1 -0.553636 -1.973251 -3.229057 1.0
462 1001 1 1.134133 -0.528790 -1.997517 1.0
463 1001 1 -1.214037 -2.942601 1.063593 1.0
464 1001 1 -0.524678 0.492633 -0.537732 1.0
465 1001 1 1.190483 0.742880 3.063843 1.0
466 1001 1 -1.243147 -2.401181 -1.878197 1.0
467 1001 1 -1.215517 -2.311511 -0.390076 1.0
468 1001 1 -0.858927 2.740149 2.277903 1.0
469 1001 1 1.257723 -2.624421 -1.353687 1.0
470 1001 1 0.537393 -3.501541 1.487313 1.0
471 1001 1 1.230933 -2.220151 -0.959650 1.0
472 1001 1 0.001368 -3.663621 1.412193 1.0
473 1001 1 0.448512 -0.445026 -0.050221 1.0
474 1001 1 -0.767169 -3.497831 -1.065217 1.0
475 1001 1 1.139123 -0.796577 3.174143 1.0
476 1001 1 -1.224057 -2.201941 -0.943923 1.0
477 1001 1 0.944023 1.720949 3.055703 1.0
478 1001 1 0.529374 -0.363630 -0.606087 1.0
479 1001 1 0.513644 -0.496522 0.513027 1.0
480 1001 1 1.073643 -2.209101 2.562393 1.0
481 1001 1 1.232743 -0.744026 -2.939387 1.0
482 1001 1 0.692472 3.609869 0.744070 1.0
483 1001 1 1.227083 -1.267801 2.835373 1.0
484 1001 1 -0.991810 2.003529 2.828033 1.0
485 1001 1 1.032063 -3.184091 1.255413 1.0
486 1001 1 -0.036788 -3.463931 1.822853 1.0
487 1001 1 0.234073 -1.406421 -3.618727 1.0
488 1001 1 0.727336 3.644509 -0.362613 1.0
489 1001 1 -0.622280 -1.022491 -3.603187 1.0
490 1001 1 1.288743 -1.927601 -2.030027 1.0
491 1001 1 -0.277844 3.397399 -1.815647 1.0
492 1001 1 -0.869588 -1.478041 -0.460490 1.0
493 1001 1 0.809113 1.413459 -3.324817 1.0
494 1001 1 -1.223097 -0.286094 2.298683 1.0
495 1001 1 0.641481 1.025839 -0.128746 1.0
496 1001 1 -0.726283 3.290669 -1.625327 1.0
497 1001 1 0.240581 3.709639 1.124393 1.0
498 1001 1 1.269383 -2.344801 1.119653 1.0
499 1001 1 -1.261437 -2.263291 1.939323 1.0
500 1001 1 -0.970395 -3.113371 1.572293 1.0
  
Bonds  
  
1 1 271 375 0.562092 
2 1 375 304 0.607033 
3 1 304 271 0.523303 
4 1 105 56 0.586399 
5 1 56 233 0.524311 
6 1 233 105 0.531460 
7 1 340 226 0.549031 
8 1 226 46 0.550503 
9 1 46 340 0.586900 
10 1 411 375 0.590171 
11 1 375 316 0.555063 
12 1 316 411 0.490785 
13 1 233 417 0.550738 
14 1 417 105 0.542626 
15 1 56 35 0.566067 
16 1 35 233 0.567185 
17 1 331 123 0.542018 
18 1 123 404 0.585650 
19 1 404 331 0.589736 
20 1 411 83 0.567414 
21 1 83 1 0.598363 
22 1 1 411 0.515994 
23 1 56 1 0.548848 
24 1 83 56 0.540687 
25 1 482 418 0.611026 
26 1 418 421 0.555201 
27 1 421 482 0.522610 
28 1 46 304 0.542370 
29 1 304 340 0.546842 
30 1 375 340 0.569746 
31 1 233 362 0.536999 
32 1 362 417 0.553260 
33 1 123 35 0.554686 
34 1 56 123 0.568616 
35 1 123 383 0.590043 
36 1 383 35 0.497336 
37 1 170 226 0.552128 
38 1 226 105 0.544555 
39 1 105 170 0.569586 
40 1 417 170 0.551136 
41 1 404 93 0.651372 
42 1 93 331 0.515921 
43 1 316 195 0.518786 
44 1 195 411 0.593507 
45 1 17 262 0.451190 
46 1 262 375 0.618989 
47 1 375 17 0.564441 
48 1 418 316 0.534354 
49 1 316 262 0.479614 
50 1 262 418 0.604516 
51 1 271 17 0.491262 
52 1 20 271 0.491365 
53 1 271 339 0.566811 
54 1 339 20 0.515008 
55 1 421 262 0.462936 
56 1 262 299 0.634194 
57 1 299 421 0.574300 
58 1 441 66 0.477091 
59 1 66 362 0.578483 
60 1 362 441 0.514662 
61 1 233 441 0.519564 
62 1 35 441 0.474716 
63 1 93 82 0.513521 
64 1 82 331 0.626605 
65 1 46 495 0.573579 
66 1 495 357 0.546819 
67 1 357 46 0.563464 
68 1 357 304 0.587497 
69 1 339 304 0.565689 
70 1 357 339 0.533927 
71 1 269 495 0.551071 
72 1 495 376 0.568029 
73 1 376 269 0.556038 
74 1 362 394 0.517226 
75 1 394 180 0.583356 
76 1 180 362 0.532426 
77 1 170 157 0.551261 
78 1 157 226 0.577347 
79 1 495 157 0.561473 
80 1 157 376 0.566699 
81 1 157 46 0.554770 
82 1 341 170 0.552606 
83 1 417 341 0.551814 
84 1 83 404 0.606925 
85 1 123 83 0.559857 
86 1 195 83 0.536996 
87 1 418 195 0.617532 
88 1 482 250 0.492518 
89 1 250 418 0.548740 
90 1 195 14 0.512942 
91 1 14 404 0.627163 
92 1 404 195 0.599870 
93 1 35 9 0.643843 
94 1 9 441 0.517580 
95 1 66 394 0.569579 
96 1 24 331 0.508858 
97 1 82 24 0.521722 
98 1 444 357 0.575373 
99 1 495 444 0.585567 
100 1 269 444 0.558844 
101 1 307 167 0.570874 
102 1 167 394 0.555969 
103 1 394 307 0.532515 
104 1 157 138 0.561599 
105 1 138 376 0.555172 
106 1 170 138 0.567863 
107 1 341 138 0.563354 
108 1 9 66 0.622322 
109 1 24 383 0.512263 
110 1 383 331 0.594007 
111 1 82 283 0.593334 
112 1 283 24 0.498095 
113 1 93 425 0.651473 
114 1 425 82 0.605499 
115 1 416 127 0.555384 
116 1 127 40 0.486189 
117 1 40 416 0.550550 
118 1 40 93 0.505837 
119 1 404 40 0.524112 
120 1 138 363 0.572884 
121 1 363 376 0.566557 
122 1 357 32 0.575756 
123 1 32 339 0.549502 
124 1 444 32 0.569096 
125 1 269 81 0.535111 
126 1 81 103 0.498583 
127 1 103 269 0.569198 
128 1 103 444 0.581954 
129 1 67 341 0.559720 
130 1 341 370 0.546545 
131 1 370 67 0.576821 
132 1 417 180 0.541008 
133 1 180 341 0.571061 
134 1 167 180 0.530927 
135 1 20 187 0.512221 
136 1 187 189 0.669428 
137 1 189 20 0.483053 
138 1 477 383 0.559802 
139 1 24 477 0.524564 
140 1 283 477 0.631463 
141 1 435 351 0.562165 
142 1 351 477 0.570086 
143 1 477 435 0.523969 
144 1 283 435 0.619052 
145 1 127 169 0.458512 
146 1 169 425 0.624160 
147 1 425 127 0.529727 
148 1 43 283 0.641060 
149 1 82 43 0.541290 
150 1 13 344 0.511598 
151 1 344 497 0.528253 
152 1 497 13 0.634162 
153 1 127 93 0.502845 
154 1 344 169 0.528988 
155 1 169 416 0.625254 
156 1 416 344 0.505641 
157 1 13 323 0.573077 
158 1 323 344 0.527785 
159 1 180 370 0.543269 
160 1 67 138 0.557211 
161 1 67 363 0.564774 
162 1 479 67 0.570058 
163 1 67 450 0.546019 
164 1 450 479 0.581244 
165 1 339 187 0.580511 
166 1 317 183 0.601129 
167 1 183 32 0.520900 
168 1 32 317 0.609465 
169 1 439 189 0.541981 
170 1 187 439 0.600115 
171 1 32 187 0.629035 
172 1 183 23 0.524195 
173 1 23 187 0.526134 
174 1 187 183 0.604851 
175 1 23 439 0.492653 
176 1 444 317 0.578544 
177 1 103 317 0.592582 
178 1 160 183 0.528742 
179 1 317 160 0.625462 
180 1 407 103 0.492220 
181 1 103 172 0.680093 
182 1 172 407 0.592298 
183 1 363 161 0.545963 
184 1 161 376 0.567063 
185 1 161 269 0.570581 
186 1 161 81 0.518334 
187 1 41 33 0.577110 
188 1 33 475 0.541337 
189 1 475 41 0.591017 
190 1 41 260 0.497744 
191 1 260 33 0.529596 
192 1 307 408 0.553891 
193 1 408 115 0.584267 
194 1 115 307 0.548560 
195 1 97 95 0.531799 
196 1 95 387 0.580316 
197 1 387 97 0.520199 
198 1 439 125 0.648053 
199 1 125 197 0.595960 
200 1 197 439 0.495839 
201 1 428 468 0.552564 
202 1 468 352 0.602961 
203 1 352 428 0.566920 
204 1 296 260 0.524309 
205 1 41 296 0.627038 
206 1 107 33 0.577359 
207 1 260 107 0.513447 
208 1 296 132 0.627712 
209 1 132 260 0.505375 
210 1 325 33 0.542805 
211 1 107 325 0.574220 
212 1 289 432 0.586423 
213 1 432 380 0.566497 
214 1 380 289 0.568477 
215 1 57 351 0.576824 
216 1 435 57 0.534731 
217 1 435 11 0.613839 
218 1 11 57 0.550687 
219 1 57 5 0.603722 
220 1 5 34 0.541897 
221 1 34 57 0.505550 
222 1 128 34 0.494241 
223 1 5 128 0.578269 
224 1 438 465 0.550559 
225 1 465 351 0.554662 
226 1 351 438 0.579844 
227 1 438 34 0.514954 
228 1 34 296 0.526803 
229 1 296 438 0.610031 
230 1 57 438 0.575125 
231 1 209 307 0.580009 
232 1 394 209 0.569090 
233 1 209 408 0.548238 
234 1 66 209 0.539501 
235 1 66 465 0.522491 
236 1 465 209 0.587829 
237 1 477 9 0.587226 
238 1 9 383 0.611592 
239 1 9 465 0.628251 
240 1 9 351 0.588077 
241 1 352 425 0.593142 
242 1 425 428 0.630387 
243 1 169 428 0.528780 
244 1 479 363 0.549883 
245 1 450 95 0.545874 
246 1 95 479 0.538277 
247 1 370 450 0.547012 
248 1 398 320 0.537151 
249 1 320 332 0.582154 
250 1 332 398 0.508495 
251 1 407 317 0.658775 
252 1 317 272 0.516099 
253 1 272 160 0.472522 
254 1 407 272 0.493064 
255 1 443 320 0.537728 
256 1 320 407 0.578652 
257 1 407 443 0.554547 
258 1 398 272 0.544462 
259 1 272 320 0.493542 
260 1 398 160 0.562093 
261 1 31 405 0.566673 
262 1 405 285 0.567065 
263 1 285 31 0.556398 
264 1 54 27 0.594732 
265 1 27 194 0.600715 
266 1 194 54 0.518726 
267 1 44 120 0.541398 
268 1 120 27 0.594358 
269 1 27 44 0.627999 
270 1 225 41 0.546603 
271 1 41 408 0.538494 
272 1 408 225 0.603511 
273 1 209 225 0.565061 
274 1 465 225 0.598790 
275 1 225 296 0.616651 
276 1 225 438 0.548217 
277 1 307 165 0.561804 
278 1 165 167 0.542509 
279 1 115 165 0.558864 
280 1 122 42 0.491290 
281 1 42 53 0.594871 
282 1 53 122 0.505756 
283 1 122 97 0.511922 
284 1 97 42 0.543933 
285 1 450 387 0.544642 
286 1 450 121 0.581763 
287 1 121 387 0.534957 
288 1 421 135 0.484127 
289 1 135 482 0.571728 
290 1 299 135 0.633077 
291 1 323 18 0.514646 
292 1 18 428 0.605049 
293 1 428 323 0.593429 
294 1 143 184 0.555042 
295 1 184 468 0.615651 
296 1 468 143 0.539575 
297 1 392 352 0.626618 
298 1 352 245 0.521410 
299 1 245 392 0.550849 
300 1 43 425 0.591451 
301 1 352 43 0.547364 
302 1 115 133 0.572360 
303 1 133 165 0.553144 
304 1 293 165 0.549912 
305 1 133 293 0.555903 
306 1 264 325 0.586999 
307 1 107 264 0.531245 
308 1 107 289 0.565304 
309 1 289 264 0.594280 
310 1 325 386 0.578923 
311 1 386 33 0.563866 
312 1 146 386 0.552524 
313 1 325 146 0.582700 
314 1 185 247 0.543307 
315 1 247 146 0.575605 
316 1 146 185 0.581716 
317 1 247 386 0.583508 
318 1 132 107 0.590119 
319 1 132 289 0.567454 
320 1 296 128 0.652761 
321 1 128 132 0.533180 
322 1 128 432 0.553172 
323 1 432 132 0.570205 
324 1 185 91 0.564857 
325 1 91 480 0.523712 
326 1 480 185 0.577858 
327 1 353 265 0.561717 
328 1 265 91 0.565213 
329 1 91 353 0.544100 
330 1 250 497 0.545271 
331 1 497 416 0.648870 
332 1 416 250 0.509059 
333 1 377 497 0.604444 
334 1 497 482 0.599003 
335 1 482 377 0.535757 
336 1 40 14 0.460527 
337 1 14 416 0.625392 
338 1 14 250 0.514076 
339 1 418 14 0.570346 
340 1 135 377 0.606125 
341 1 231 44 0.473053 
342 1 27 231 0.543740 
343 1 186 192 0.518592 
344 1 192 252 0.553088 
345 1 252 186 0.521218 
346 1 192 285 0.555370 
347 1 405 192 0.554167 